LAMMPS Description

     12000  atoms
     12000  bonds
     18000  angles
     24000  dihedrals
     18000  impropers

     5  atom types
     3  bond types
     3  angle types
     3  dihedral types
     1  improper types

  0 53.5 xlo xhi
  0 53.5 ylo yhi
  0 53.5 zlo zhi

Masses

    1 27.0
    2 15.9994
    3 1.008
    4 12.011
    5 1.008

Atoms # full

1 1 4 0.00 -0.739 5.189 1.99267 # 90<->"Aromatic C"
2 1 4 0.00 0.614 5.208 2.35167 # 90<->"Aromatic C"
3 1 4 0.00 1.353 4.019 2.35867 # 90<->"Aromatic C"
4 1 4 0.00 0.739 2.811 2.00667 # 90<->"Aromatic C"
5 1 4 0.00 -0.614 2.792 1.64867 # 90<->"Aromatic C"
6 1 4 0.00 -1.353 3.981 1.64167 # 90<->"Aromatic C"
7 1 5 0.00 -1.309 6.106 1.98767 # 91<->"Aromatic H-C"
8 1 5 0.00 1.088 6.14 2.62267 # 91<->"Aromatic H-C"
9 1 5 0.00 2.397 4.034 2.63467 # 91<->"Aromatic H-C"
10 1 5 0.00 1.309 1.894 2.01267 # 91<->"Aromatic H-C"
11 1 5 0.00 -1.088 1.86 1.37767 # 91<->"Aromatic H-C"
12 1 5 0.00 -2.397 3.966 1.36467 # 91<->"Aromatic H-C"
13 2 4 0.00 -0.739 5.189 7.29267 # 90<->"Aromatic C"
14 2 4 0.00 0.614 5.208 7.65167 # 90<->"Aromatic C"
15 2 4 0.00 1.353 4.019 7.65867 # 90<->"Aromatic C"
16 2 4 0.00 0.739 2.811 7.30667 # 90<->"Aromatic C"
17 2 4 0.00 -0.614 2.792 6.94867 # 90<->"Aromatic C"
18 2 4 0.00 -1.353 3.981 6.94167 # 90<->"Aromatic C"
19 2 5 0.00 -1.309 6.106 7.28767 # 91<->"Aromatic H-C"
20 2 5 0.00 1.088 6.14 7.92267 # 91<->"Aromatic H-C"
21 2 5 0.00 2.397 4.034 7.93467 # 91<->"Aromatic H-C"
22 2 5 0.00 1.309 1.894 7.31267 # 91<->"Aromatic H-C"
23 2 5 0.00 -1.088 1.86 6.67767 # 91<->"Aromatic H-C"
24 2 5 0.00 -2.397 3.966 6.66467 # 91<->"Aromatic H-C"
25 3 4 0.00 -0.739 5.189 12.59267 # 90<->"Aromatic C"
26 3 4 0.00 0.614 5.208 12.95167 # 90<->"Aromatic C"
27 3 4 0.00 1.353 4.019 12.95867 # 90<->"Aromatic C"
28 3 4 0.00 0.739 2.811 12.60667 # 90<->"Aromatic C"
29 3 4 0.00 -0.614 2.792 12.24867 # 90<->"Aromatic C"
30 3 4 0.00 -1.353 3.981 12.24167 # 90<->"Aromatic C"
31 3 5 0.00 -1.309 6.106 12.58767 # 91<->"Aromatic H-C"
32 3 5 0.00 1.088 6.14 13.22267 # 91<->"Aromatic H-C"
33 3 5 0.00 2.397 4.034 13.23467 # 91<->"Aromatic H-C"
34 3 5 0.00 1.309 1.894 12.61267 # 91<->"Aromatic H-C"
35 3 5 0.00 -1.088 1.86 11.97767 # 91<->"Aromatic H-C"
36 3 5 0.00 -2.397 3.966 11.96467 # 91<->"Aromatic H-C"
37 4 4 0.00 -0.739 5.189 17.89267 # 90<->"Aromatic C"
38 4 4 0.00 0.614 5.208 18.25167 # 90<->"Aromatic C"
39 4 4 0.00 1.353 4.019 18.25867 # 90<->"Aromatic C"
40 4 4 0.00 0.739 2.811 17.90667 # 90<->"Aromatic C"
41 4 4 0.00 -0.614 2.792 17.54867 # 90<->"Aromatic C"
42 4 4 0.00 -1.353 3.981 17.54167 # 90<->"Aromatic C"
43 4 5 0.00 -1.309 6.106 17.88767 # 91<->"Aromatic H-C"
44 4 5 0.00 1.088 6.14 18.52267 # 91<->"Aromatic H-C"
45 4 5 0.00 2.397 4.034 18.53467 # 91<->"Aromatic H-C"
46 4 5 0.00 1.309 1.894 17.91267 # 91<->"Aromatic H-C"
47 4 5 0.00 -1.088 1.86 17.27767 # 91<->"Aromatic H-C"
48 4 5 0.00 -2.397 3.966 17.26467 # 91<->"Aromatic H-C"
49 5 4 0.00 -0.739 5.189 23.19267 # 90<->"Aromatic C"
50 5 4 0.00 0.614 5.208 23.55167 # 90<->"Aromatic C"
51 5 4 0.00 1.353 4.019 23.55867 # 90<->"Aromatic C"
52 5 4 0.00 0.739 2.811 23.20667 # 90<->"Aromatic C"
53 5 4 0.00 -0.614 2.792 22.84867 # 90<->"Aromatic C"
54 5 4 0.00 -1.353 3.981 22.84167 # 90<->"Aromatic C"
55 5 5 0.00 -1.309 6.106 23.18767 # 91<->"Aromatic H-C"
56 5 5 0.00 1.088 6.14 23.82267 # 91<->"Aromatic H-C"
57 5 5 0.00 2.397 4.034 23.83467 # 91<->"Aromatic H-C"
58 5 5 0.00 1.309 1.894 23.21267 # 91<->"Aromatic H-C"
59 5 5 0.00 -1.088 1.86 22.57767 # 91<->"Aromatic H-C"
60 5 5 0.00 -2.397 3.966 22.56467 # 91<->"Aromatic H-C"
61 6 4 0.00 -0.739 5.189 28.49267 # 90<->"Aromatic C"
62 6 4 0.00 0.614 5.208 28.85167 # 90<->"Aromatic C"
63 6 4 0.00 1.353 4.019 28.85867 # 90<->"Aromatic C"
64 6 4 0.00 0.739 2.811 28.50667 # 90<->"Aromatic C"
65 6 4 0.00 -0.614 2.792 28.14867 # 90<->"Aromatic C"
66 6 4 0.00 -1.353 3.981 28.14167 # 90<->"Aromatic C"
67 6 5 0.00 -1.309 6.106 28.48767 # 91<->"Aromatic H-C"
68 6 5 0.00 1.088 6.14 29.12267 # 91<->"Aromatic H-C"
69 6 5 0.00 2.397 4.034 29.13467 # 91<->"Aromatic H-C"
70 6 5 0.00 1.309 1.894 28.51267 # 91<->"Aromatic H-C"
71 6 5 0.00 -1.088 1.86 27.87767 # 91<->"Aromatic H-C"
72 6 5 0.00 -2.397 3.966 27.86467 # 91<->"Aromatic H-C"
73 7 4 0.00 -0.739 5.189 33.79267 # 90<->"Aromatic C"
74 7 4 0.00 0.614 5.208 34.15167 # 90<->"Aromatic C"
75 7 4 0.00 1.353 4.019 34.15867 # 90<->"Aromatic C"
76 7 4 0.00 0.739 2.811 33.80667 # 90<->"Aromatic C"
77 7 4 0.00 -0.614 2.792 33.44867 # 90<->"Aromatic C"
78 7 4 0.00 -1.353 3.981 33.44167 # 90<->"Aromatic C"
79 7 5 0.00 -1.309 6.106 33.78767 # 91<->"Aromatic H-C"
80 7 5 0.00 1.088 6.14 34.42267 # 91<->"Aromatic H-C"
81 7 5 0.00 2.397 4.034 34.43467 # 91<->"Aromatic H-C"
82 7 5 0.00 1.309 1.894 33.81267 # 91<->"Aromatic H-C"
83 7 5 0.00 -1.088 1.86 33.17767 # 91<->"Aromatic H-C"
84 7 5 0.00 -2.397 3.966 33.16467 # 91<->"Aromatic H-C"
85 8 4 0.00 -0.739 5.189 39.09267 # 90<->"Aromatic C"
86 8 4 0.00 0.614 5.208 39.45167 # 90<->"Aromatic C"
87 8 4 0.00 1.353 4.019 39.45867 # 90<->"Aromatic C"
88 8 4 0.00 0.739 2.811 39.10667 # 90<->"Aromatic C"
89 8 4 0.00 -0.614 2.792 38.74867 # 90<->"Aromatic C"
90 8 4 0.00 -1.353 3.981 38.74167 # 90<->"Aromatic C"
91 8 5 0.00 -1.309 6.106 39.08767 # 91<->"Aromatic H-C"
92 8 5 0.00 1.088 6.14 39.72267 # 91<->"Aromatic H-C"
93 8 5 0.00 2.397 4.034 39.73467 # 91<->"Aromatic H-C"
94 8 5 0.00 1.309 1.894 39.11267 # 91<->"Aromatic H-C"
95 8 5 0.00 -1.088 1.86 38.47767 # 91<->"Aromatic H-C"
96 8 5 0.00 -2.397 3.966 38.46467 # 91<->"Aromatic H-C"
97 9 4 0.00 -0.739 5.189 44.39267 # 90<->"Aromatic C"
98 9 4 0.00 0.614 5.208 44.75167 # 90<->"Aromatic C"
99 9 4 0.00 1.353 4.019 44.75867 # 90<->"Aromatic C"
100 9 4 0.00 0.739 2.811 44.40667 # 90<->"Aromatic C"
101 9 4 0.00 -0.614 2.792 44.04867 # 90<->"Aromatic C"
102 9 4 0.00 -1.353 3.981 44.04167 # 90<->"Aromatic C"
103 9 5 0.00 -1.309 6.106 44.38767 # 91<->"Aromatic H-C"
104 9 5 0.00 1.088 6.14 45.02267 # 91<->"Aromatic H-C"
105 9 5 0.00 2.397 4.034 45.03467 # 91<->"Aromatic H-C"
106 9 5 0.00 1.309 1.894 44.41267 # 91<->"Aromatic H-C"
107 9 5 0.00 -1.088 1.86 43.77767 # 91<->"Aromatic H-C"
108 9 5 0.00 -2.397 3.966 43.76467 # 91<->"Aromatic H-C"
109 10 4 0.00 -0.739 5.189 49.69267 # 90<->"Aromatic C"
110 10 4 0.00 0.614 5.208 50.05167 # 90<->"Aromatic C"
111 10 4 0.00 1.353 4.019 50.05867 # 90<->"Aromatic C"
112 10 4 0.00 0.739 2.811 49.70667 # 90<->"Aromatic C"
113 10 4 0.00 -0.614 2.792 49.34867 # 90<->"Aromatic C"
114 10 4 0.00 -1.353 3.981 49.34167 # 90<->"Aromatic C"
115 10 5 0.00 -1.309 6.106 49.68767 # 91<->"Aromatic H-C"
116 10 5 0.00 1.088 6.14 50.32267 # 91<->"Aromatic H-C"
117 10 5 0.00 2.397 4.034 50.33467 # 91<->"Aromatic H-C"
118 10 5 0.00 1.309 1.894 49.71267 # 91<->"Aromatic H-C"
119 10 5 0.00 -1.088 1.86 49.07767 # 91<->"Aromatic H-C"
120 10 5 0.00 -2.397 3.966 49.06467 # 91<->"Aromatic H-C"
121 11 4 0.00 -0.739 10.489 1.99267 # 90<->"Aromatic C"
122 11 4 0.00 0.614 10.508 2.35167 # 90<->"Aromatic C"
123 11 4 0.00 1.353 9.319 2.35867 # 90<->"Aromatic C"
124 11 4 0.00 0.739 8.111 2.00667 # 90<->"Aromatic C"
125 11 4 0.00 -0.614 8.092 1.64867 # 90<->"Aromatic C"
126 11 4 0.00 -1.353 9.281 1.64167 # 90<->"Aromatic C"
127 11 5 0.00 -1.309 11.406 1.98767 # 91<->"Aromatic H-C"
128 11 5 0.00 1.088 11.44 2.62267 # 91<->"Aromatic H-C"
129 11 5 0.00 2.397 9.334 2.63467 # 91<->"Aromatic H-C"
130 11 5 0.00 1.309 7.194 2.01267 # 91<->"Aromatic H-C"
131 11 5 0.00 -1.088 7.16 1.37767 # 91<->"Aromatic H-C"
132 11 5 0.00 -2.397 9.266 1.36467 # 91<->"Aromatic H-C"
133 12 4 0.00 -0.739 10.489 7.29267 # 90<->"Aromatic C"
134 12 4 0.00 0.614 10.508 7.65167 # 90<->"Aromatic C"
135 12 4 0.00 1.353 9.319 7.65867 # 90<->"Aromatic C"
136 12 4 0.00 0.739 8.111 7.30667 # 90<->"Aromatic C"
137 12 4 0.00 -0.614 8.092 6.94867 # 90<->"Aromatic C"
138 12 4 0.00 -1.353 9.281 6.94167 # 90<->"Aromatic C"
139 12 5 0.00 -1.309 11.406 7.28767 # 91<->"Aromatic H-C"
140 12 5 0.00 1.088 11.44 7.92267 # 91<->"Aromatic H-C"
141 12 5 0.00 2.397 9.334 7.93467 # 91<->"Aromatic H-C"
142 12 5 0.00 1.309 7.194 7.31267 # 91<->"Aromatic H-C"
143 12 5 0.00 -1.088 7.16 6.67767 # 91<->"Aromatic H-C"
144 12 5 0.00 -2.397 9.266 6.66467 # 91<->"Aromatic H-C"
145 13 4 0.00 -0.739 10.489 12.59267 # 90<->"Aromatic C"
146 13 4 0.00 0.614 10.508 12.95167 # 90<->"Aromatic C"
147 13 4 0.00 1.353 9.319 12.95867 # 90<->"Aromatic C"
148 13 4 0.00 0.739 8.111 12.60667 # 90<->"Aromatic C"
149 13 4 0.00 -0.614 8.092 12.24867 # 90<->"Aromatic C"
150 13 4 0.00 -1.353 9.281 12.24167 # 90<->"Aromatic C"
151 13 5 0.00 -1.309 11.406 12.58767 # 91<->"Aromatic H-C"
152 13 5 0.00 1.088 11.44 13.22267 # 91<->"Aromatic H-C"
153 13 5 0.00 2.397 9.334 13.23467 # 91<->"Aromatic H-C"
154 13 5 0.00 1.309 7.194 12.61267 # 91<->"Aromatic H-C"
155 13 5 0.00 -1.088 7.16 11.97767 # 91<->"Aromatic H-C"
156 13 5 0.00 -2.397 9.266 11.96467 # 91<->"Aromatic H-C"
157 14 4 0.00 -0.739 10.489 17.89267 # 90<->"Aromatic C"
158 14 4 0.00 0.614 10.508 18.25167 # 90<->"Aromatic C"
159 14 4 0.00 1.353 9.319 18.25867 # 90<->"Aromatic C"
160 14 4 0.00 0.739 8.111 17.90667 # 90<->"Aromatic C"
161 14 4 0.00 -0.614 8.092 17.54867 # 90<->"Aromatic C"
162 14 4 0.00 -1.353 9.281 17.54167 # 90<->"Aromatic C"
163 14 5 0.00 -1.309 11.406 17.88767 # 91<->"Aromatic H-C"
164 14 5 0.00 1.088 11.44 18.52267 # 91<->"Aromatic H-C"
165 14 5 0.00 2.397 9.334 18.53467 # 91<->"Aromatic H-C"
166 14 5 0.00 1.309 7.194 17.91267 # 91<->"Aromatic H-C"
167 14 5 0.00 -1.088 7.16 17.27767 # 91<->"Aromatic H-C"
168 14 5 0.00 -2.397 9.266 17.26467 # 91<->"Aromatic H-C"
169 15 4 0.00 -0.739 10.489 23.19267 # 90<->"Aromatic C"
170 15 4 0.00 0.614 10.508 23.55167 # 90<->"Aromatic C"
171 15 4 0.00 1.353 9.319 23.55867 # 90<->"Aromatic C"
172 15 4 0.00 0.739 8.111 23.20667 # 90<->"Aromatic C"
173 15 4 0.00 -0.614 8.092 22.84867 # 90<->"Aromatic C"
174 15 4 0.00 -1.353 9.281 22.84167 # 90<->"Aromatic C"
175 15 5 0.00 -1.309 11.406 23.18767 # 91<->"Aromatic H-C"
176 15 5 0.00 1.088 11.44 23.82267 # 91<->"Aromatic H-C"
177 15 5 0.00 2.397 9.334 23.83467 # 91<->"Aromatic H-C"
178 15 5 0.00 1.309 7.194 23.21267 # 91<->"Aromatic H-C"
179 15 5 0.00 -1.088 7.16 22.57767 # 91<->"Aromatic H-C"
180 15 5 0.00 -2.397 9.266 22.56467 # 91<->"Aromatic H-C"
181 16 4 0.00 -0.739 10.489 28.49267 # 90<->"Aromatic C"
182 16 4 0.00 0.614 10.508 28.85167 # 90<->"Aromatic C"
183 16 4 0.00 1.353 9.319 28.85867 # 90<->"Aromatic C"
184 16 4 0.00 0.739 8.111 28.50667 # 90<->"Aromatic C"
185 16 4 0.00 -0.614 8.092 28.14867 # 90<->"Aromatic C"
186 16 4 0.00 -1.353 9.281 28.14167 # 90<->"Aromatic C"
187 16 5 0.00 -1.309 11.406 28.48767 # 91<->"Aromatic H-C"
188 16 5 0.00 1.088 11.44 29.12267 # 91<->"Aromatic H-C"
189 16 5 0.00 2.397 9.334 29.13467 # 91<->"Aromatic H-C"
190 16 5 0.00 1.309 7.194 28.51267 # 91<->"Aromatic H-C"
191 16 5 0.00 -1.088 7.16 27.87767 # 91<->"Aromatic H-C"
192 16 5 0.00 -2.397 9.266 27.86467 # 91<->"Aromatic H-C"
193 17 4 0.00 -0.739 10.489 33.79267 # 90<->"Aromatic C"
194 17 4 0.00 0.614 10.508 34.15167 # 90<->"Aromatic C"
195 17 4 0.00 1.353 9.319 34.15867 # 90<->"Aromatic C"
196 17 4 0.00 0.739 8.111 33.80667 # 90<->"Aromatic C"
197 17 4 0.00 -0.614 8.092 33.44867 # 90<->"Aromatic C"
198 17 4 0.00 -1.353 9.281 33.44167 # 90<->"Aromatic C"
199 17 5 0.00 -1.309 11.406 33.78767 # 91<->"Aromatic H-C"
200 17 5 0.00 1.088 11.44 34.42267 # 91<->"Aromatic H-C"
201 17 5 0.00 2.397 9.334 34.43467 # 91<->"Aromatic H-C"
202 17 5 0.00 1.309 7.194 33.81267 # 91<->"Aromatic H-C"
203 17 5 0.00 -1.088 7.16 33.17767 # 91<->"Aromatic H-C"
204 17 5 0.00 -2.397 9.266 33.16467 # 91<->"Aromatic H-C"
205 18 4 0.00 -0.739 10.489 39.09267 # 90<->"Aromatic C"
206 18 4 0.00 0.614 10.508 39.45167 # 90<->"Aromatic C"
207 18 4 0.00 1.353 9.319 39.45867 # 90<->"Aromatic C"
208 18 4 0.00 0.739 8.111 39.10667 # 90<->"Aromatic C"
209 18 4 0.00 -0.614 8.092 38.74867 # 90<->"Aromatic C"
210 18 4 0.00 -1.353 9.281 38.74167 # 90<->"Aromatic C"
211 18 5 0.00 -1.309 11.406 39.08767 # 91<->"Aromatic H-C"
212 18 5 0.00 1.088 11.44 39.72267 # 91<->"Aromatic H-C"
213 18 5 0.00 2.397 9.334 39.73467 # 91<->"Aromatic H-C"
214 18 5 0.00 1.309 7.194 39.11267 # 91<->"Aromatic H-C"
215 18 5 0.00 -1.088 7.16 38.47767 # 91<->"Aromatic H-C"
216 18 5 0.00 -2.397 9.266 38.46467 # 91<->"Aromatic H-C"
217 19 4 0.00 -0.739 10.489 44.39267 # 90<->"Aromatic C"
218 19 4 0.00 0.614 10.508 44.75167 # 90<->"Aromatic C"
219 19 4 0.00 1.353 9.319 44.75867 # 90<->"Aromatic C"
220 19 4 0.00 0.739 8.111 44.40667 # 90<->"Aromatic C"
221 19 4 0.00 -0.614 8.092 44.04867 # 90<->"Aromatic C"
222 19 4 0.00 -1.353 9.281 44.04167 # 90<->"Aromatic C"
223 19 5 0.00 -1.309 11.406 44.38767 # 91<->"Aromatic H-C"
224 19 5 0.00 1.088 11.44 45.02267 # 91<->"Aromatic H-C"
225 19 5 0.00 2.397 9.334 45.03467 # 91<->"Aromatic H-C"
226 19 5 0.00 1.309 7.194 44.41267 # 91<->"Aromatic H-C"
227 19 5 0.00 -1.088 7.16 43.77767 # 91<->"Aromatic H-C"
228 19 5 0.00 -2.397 9.266 43.76467 # 91<->"Aromatic H-C"
229 20 4 0.00 -0.739 10.489 49.69267 # 90<->"Aromatic C"
230 20 4 0.00 0.614 10.508 50.05167 # 90<->"Aromatic C"
231 20 4 0.00 1.353 9.319 50.05867 # 90<->"Aromatic C"
232 20 4 0.00 0.739 8.111 49.70667 # 90<->"Aromatic C"
233 20 4 0.00 -0.614 8.092 49.34867 # 90<->"Aromatic C"
234 20 4 0.00 -1.353 9.281 49.34167 # 90<->"Aromatic C"
235 20 5 0.00 -1.309 11.406 49.68767 # 91<->"Aromatic H-C"
236 20 5 0.00 1.088 11.44 50.32267 # 91<->"Aromatic H-C"
237 20 5 0.00 2.397 9.334 50.33467 # 91<->"Aromatic H-C"
238 20 5 0.00 1.309 7.194 49.71267 # 91<->"Aromatic H-C"
239 20 5 0.00 -1.088 7.16 49.07767 # 91<->"Aromatic H-C"
240 20 5 0.00 -2.397 9.266 49.06467 # 91<->"Aromatic H-C"
241 21 4 0.00 -0.739 15.789 1.99267 # 90<->"Aromatic C"
242 21 4 0.00 0.614 15.808 2.35167 # 90<->"Aromatic C"
243 21 4 0.00 1.353 14.619 2.35867 # 90<->"Aromatic C"
244 21 4 0.00 0.739 13.411 2.00667 # 90<->"Aromatic C"
245 21 4 0.00 -0.614 13.392 1.64867 # 90<->"Aromatic C"
246 21 4 0.00 -1.353 14.581 1.64167 # 90<->"Aromatic C"
247 21 5 0.00 -1.309 16.706 1.98767 # 91<->"Aromatic H-C"
248 21 5 0.00 1.088 16.74 2.62267 # 91<->"Aromatic H-C"
249 21 5 0.00 2.397 14.634 2.63467 # 91<->"Aromatic H-C"
250 21 5 0.00 1.309 12.494 2.01267 # 91<->"Aromatic H-C"
251 21 5 0.00 -1.088 12.46 1.37767 # 91<->"Aromatic H-C"
252 21 5 0.00 -2.397 14.566 1.36467 # 91<->"Aromatic H-C"
253 22 4 0.00 -0.739 15.789 7.29267 # 90<->"Aromatic C"
254 22 4 0.00 0.614 15.808 7.65167 # 90<->"Aromatic C"
255 22 4 0.00 1.353 14.619 7.65867 # 90<->"Aromatic C"
256 22 4 0.00 0.739 13.411 7.30667 # 90<->"Aromatic C"
257 22 4 0.00 -0.614 13.392 6.94867 # 90<->"Aromatic C"
258 22 4 0.00 -1.353 14.581 6.94167 # 90<->"Aromatic C"
259 22 5 0.00 -1.309 16.706 7.28767 # 91<->"Aromatic H-C"
260 22 5 0.00 1.088 16.74 7.92267 # 91<->"Aromatic H-C"
261 22 5 0.00 2.397 14.634 7.93467 # 91<->"Aromatic H-C"
262 22 5 0.00 1.309 12.494 7.31267 # 91<->"Aromatic H-C"
263 22 5 0.00 -1.088 12.46 6.67767 # 91<->"Aromatic H-C"
264 22 5 0.00 -2.397 14.566 6.66467 # 91<->"Aromatic H-C"
265 23 4 0.00 -0.739 15.789 12.59267 # 90<->"Aromatic C"
266 23 4 0.00 0.614 15.808 12.95167 # 90<->"Aromatic C"
267 23 4 0.00 1.353 14.619 12.95867 # 90<->"Aromatic C"
268 23 4 0.00 0.739 13.411 12.60667 # 90<->"Aromatic C"
269 23 4 0.00 -0.614 13.392 12.24867 # 90<->"Aromatic C"
270 23 4 0.00 -1.353 14.581 12.24167 # 90<->"Aromatic C"
271 23 5 0.00 -1.309 16.706 12.58767 # 91<->"Aromatic H-C"
272 23 5 0.00 1.088 16.74 13.22267 # 91<->"Aromatic H-C"
273 23 5 0.00 2.397 14.634 13.23467 # 91<->"Aromatic H-C"
274 23 5 0.00 1.309 12.494 12.61267 # 91<->"Aromatic H-C"
275 23 5 0.00 -1.088 12.46 11.97767 # 91<->"Aromatic H-C"
276 23 5 0.00 -2.397 14.566 11.96467 # 91<->"Aromatic H-C"
277 24 4 0.00 -0.739 15.789 17.89267 # 90<->"Aromatic C"
278 24 4 0.00 0.614 15.808 18.25167 # 90<->"Aromatic C"
279 24 4 0.00 1.353 14.619 18.25867 # 90<->"Aromatic C"
280 24 4 0.00 0.739 13.411 17.90667 # 90<->"Aromatic C"
281 24 4 0.00 -0.614 13.392 17.54867 # 90<->"Aromatic C"
282 24 4 0.00 -1.353 14.581 17.54167 # 90<->"Aromatic C"
283 24 5 0.00 -1.309 16.706 17.88767 # 91<->"Aromatic H-C"
284 24 5 0.00 1.088 16.74 18.52267 # 91<->"Aromatic H-C"
285 24 5 0.00 2.397 14.634 18.53467 # 91<->"Aromatic H-C"
286 24 5 0.00 1.309 12.494 17.91267 # 91<->"Aromatic H-C"
287 24 5 0.00 -1.088 12.46 17.27767 # 91<->"Aromatic H-C"
288 24 5 0.00 -2.397 14.566 17.26467 # 91<->"Aromatic H-C"
289 25 4 0.00 -0.739 15.789 23.19267 # 90<->"Aromatic C"
290 25 4 0.00 0.614 15.808 23.55167 # 90<->"Aromatic C"
291 25 4 0.00 1.353 14.619 23.55867 # 90<->"Aromatic C"
292 25 4 0.00 0.739 13.411 23.20667 # 90<->"Aromatic C"
293 25 4 0.00 -0.614 13.392 22.84867 # 90<->"Aromatic C"
294 25 4 0.00 -1.353 14.581 22.84167 # 90<->"Aromatic C"
295 25 5 0.00 -1.309 16.706 23.18767 # 91<->"Aromatic H-C"
296 25 5 0.00 1.088 16.74 23.82267 # 91<->"Aromatic H-C"
297 25 5 0.00 2.397 14.634 23.83467 # 91<->"Aromatic H-C"
298 25 5 0.00 1.309 12.494 23.21267 # 91<->"Aromatic H-C"
299 25 5 0.00 -1.088 12.46 22.57767 # 91<->"Aromatic H-C"
300 25 5 0.00 -2.397 14.566 22.56467 # 91<->"Aromatic H-C"
301 26 4 0.00 -0.739 15.789 28.49267 # 90<->"Aromatic C"
302 26 4 0.00 0.614 15.808 28.85167 # 90<->"Aromatic C"
303 26 4 0.00 1.353 14.619 28.85867 # 90<->"Aromatic C"
304 26 4 0.00 0.739 13.411 28.50667 # 90<->"Aromatic C"
305 26 4 0.00 -0.614 13.392 28.14867 # 90<->"Aromatic C"
306 26 4 0.00 -1.353 14.581 28.14167 # 90<->"Aromatic C"
307 26 5 0.00 -1.309 16.706 28.48767 # 91<->"Aromatic H-C"
308 26 5 0.00 1.088 16.74 29.12267 # 91<->"Aromatic H-C"
309 26 5 0.00 2.397 14.634 29.13467 # 91<->"Aromatic H-C"
310 26 5 0.00 1.309 12.494 28.51267 # 91<->"Aromatic H-C"
311 26 5 0.00 -1.088 12.46 27.87767 # 91<->"Aromatic H-C"
312 26 5 0.00 -2.397 14.566 27.86467 # 91<->"Aromatic H-C"
313 27 4 0.00 -0.739 15.789 33.79267 # 90<->"Aromatic C"
314 27 4 0.00 0.614 15.808 34.15167 # 90<->"Aromatic C"
315 27 4 0.00 1.353 14.619 34.15867 # 90<->"Aromatic C"
316 27 4 0.00 0.739 13.411 33.80667 # 90<->"Aromatic C"
317 27 4 0.00 -0.614 13.392 33.44867 # 90<->"Aromatic C"
318 27 4 0.00 -1.353 14.581 33.44167 # 90<->"Aromatic C"
319 27 5 0.00 -1.309 16.706 33.78767 # 91<->"Aromatic H-C"
320 27 5 0.00 1.088 16.74 34.42267 # 91<->"Aromatic H-C"
321 27 5 0.00 2.397 14.634 34.43467 # 91<->"Aromatic H-C"
322 27 5 0.00 1.309 12.494 33.81267 # 91<->"Aromatic H-C"
323 27 5 0.00 -1.088 12.46 33.17767 # 91<->"Aromatic H-C"
324 27 5 0.00 -2.397 14.566 33.16467 # 91<->"Aromatic H-C"
325 28 4 0.00 -0.739 15.789 39.09267 # 90<->"Aromatic C"
326 28 4 0.00 0.614 15.808 39.45167 # 90<->"Aromatic C"
327 28 4 0.00 1.353 14.619 39.45867 # 90<->"Aromatic C"
328 28 4 0.00 0.739 13.411 39.10667 # 90<->"Aromatic C"
329 28 4 0.00 -0.614 13.392 38.74867 # 90<->"Aromatic C"
330 28 4 0.00 -1.353 14.581 38.74167 # 90<->"Aromatic C"
331 28 5 0.00 -1.309 16.706 39.08767 # 91<->"Aromatic H-C"
332 28 5 0.00 1.088 16.74 39.72267 # 91<->"Aromatic H-C"
333 28 5 0.00 2.397 14.634 39.73467 # 91<->"Aromatic H-C"
334 28 5 0.00 1.309 12.494 39.11267 # 91<->"Aromatic H-C"
335 28 5 0.00 -1.088 12.46 38.47767 # 91<->"Aromatic H-C"
336 28 5 0.00 -2.397 14.566 38.46467 # 91<->"Aromatic H-C"
337 29 4 0.00 -0.739 15.789 44.39267 # 90<->"Aromatic C"
338 29 4 0.00 0.614 15.808 44.75167 # 90<->"Aromatic C"
339 29 4 0.00 1.353 14.619 44.75867 # 90<->"Aromatic C"
340 29 4 0.00 0.739 13.411 44.40667 # 90<->"Aromatic C"
341 29 4 0.00 -0.614 13.392 44.04867 # 90<->"Aromatic C"
342 29 4 0.00 -1.353 14.581 44.04167 # 90<->"Aromatic C"
343 29 5 0.00 -1.309 16.706 44.38767 # 91<->"Aromatic H-C"
344 29 5 0.00 1.088 16.74 45.02267 # 91<->"Aromatic H-C"
345 29 5 0.00 2.397 14.634 45.03467 # 91<->"Aromatic H-C"
346 29 5 0.00 1.309 12.494 44.41267 # 91<->"Aromatic H-C"
347 29 5 0.00 -1.088 12.46 43.77767 # 91<->"Aromatic H-C"
348 29 5 0.00 -2.397 14.566 43.76467 # 91<->"Aromatic H-C"
349 30 4 0.00 -0.739 15.789 49.69267 # 90<->"Aromatic C"
350 30 4 0.00 0.614 15.808 50.05167 # 90<->"Aromatic C"
351 30 4 0.00 1.353 14.619 50.05867 # 90<->"Aromatic C"
352 30 4 0.00 0.739 13.411 49.70667 # 90<->"Aromatic C"
353 30 4 0.00 -0.614 13.392 49.34867 # 90<->"Aromatic C"
354 30 4 0.00 -1.353 14.581 49.34167 # 90<->"Aromatic C"
355 30 5 0.00 -1.309 16.706 49.68767 # 91<->"Aromatic H-C"
356 30 5 0.00 1.088 16.74 50.32267 # 91<->"Aromatic H-C"
357 30 5 0.00 2.397 14.634 50.33467 # 91<->"Aromatic H-C"
358 30 5 0.00 1.309 12.494 49.71267 # 91<->"Aromatic H-C"
359 30 5 0.00 -1.088 12.46 49.07767 # 91<->"Aromatic H-C"
360 30 5 0.00 -2.397 14.566 49.06467 # 91<->"Aromatic H-C"
361 31 4 0.00 -0.739 21.089 1.99267 # 90<->"Aromatic C"
362 31 4 0.00 0.614 21.108 2.35167 # 90<->"Aromatic C"
363 31 4 0.00 1.353 19.919 2.35867 # 90<->"Aromatic C"
364 31 4 0.00 0.739 18.711 2.00667 # 90<->"Aromatic C"
365 31 4 0.00 -0.614 18.692 1.64867 # 90<->"Aromatic C"
366 31 4 0.00 -1.353 19.881 1.64167 # 90<->"Aromatic C"
367 31 5 0.00 -1.309 22.006 1.98767 # 91<->"Aromatic H-C"
368 31 5 0.00 1.088 22.04 2.62267 # 91<->"Aromatic H-C"
369 31 5 0.00 2.397 19.934 2.63467 # 91<->"Aromatic H-C"
370 31 5 0.00 1.309 17.794 2.01267 # 91<->"Aromatic H-C"
371 31 5 0.00 -1.088 17.76 1.37767 # 91<->"Aromatic H-C"
372 31 5 0.00 -2.397 19.866 1.36467 # 91<->"Aromatic H-C"
373 32 4 0.00 -0.739 21.089 7.29267 # 90<->"Aromatic C"
374 32 4 0.00 0.614 21.108 7.65167 # 90<->"Aromatic C"
375 32 4 0.00 1.353 19.919 7.65867 # 90<->"Aromatic C"
376 32 4 0.00 0.739 18.711 7.30667 # 90<->"Aromatic C"
377 32 4 0.00 -0.614 18.692 6.94867 # 90<->"Aromatic C"
378 32 4 0.00 -1.353 19.881 6.94167 # 90<->"Aromatic C"
379 32 5 0.00 -1.309 22.006 7.28767 # 91<->"Aromatic H-C"
380 32 5 0.00 1.088 22.04 7.92267 # 91<->"Aromatic H-C"
381 32 5 0.00 2.397 19.934 7.93467 # 91<->"Aromatic H-C"
382 32 5 0.00 1.309 17.794 7.31267 # 91<->"Aromatic H-C"
383 32 5 0.00 -1.088 17.76 6.67767 # 91<->"Aromatic H-C"
384 32 5 0.00 -2.397 19.866 6.66467 # 91<->"Aromatic H-C"
385 33 4 0.00 -0.739 21.089 12.59267 # 90<->"Aromatic C"
386 33 4 0.00 0.614 21.108 12.95167 # 90<->"Aromatic C"
387 33 4 0.00 1.353 19.919 12.95867 # 90<->"Aromatic C"
388 33 4 0.00 0.739 18.711 12.60667 # 90<->"Aromatic C"
389 33 4 0.00 -0.614 18.692 12.24867 # 90<->"Aromatic C"
390 33 4 0.00 -1.353 19.881 12.24167 # 90<->"Aromatic C"
391 33 5 0.00 -1.309 22.006 12.58767 # 91<->"Aromatic H-C"
392 33 5 0.00 1.088 22.04 13.22267 # 91<->"Aromatic H-C"
393 33 5 0.00 2.397 19.934 13.23467 # 91<->"Aromatic H-C"
394 33 5 0.00 1.309 17.794 12.61267 # 91<->"Aromatic H-C"
395 33 5 0.00 -1.088 17.76 11.97767 # 91<->"Aromatic H-C"
396 33 5 0.00 -2.397 19.866 11.96467 # 91<->"Aromatic H-C"
397 34 4 0.00 -0.739 21.089 17.89267 # 90<->"Aromatic C"
398 34 4 0.00 0.614 21.108 18.25167 # 90<->"Aromatic C"
399 34 4 0.00 1.353 19.919 18.25867 # 90<->"Aromatic C"
400 34 4 0.00 0.739 18.711 17.90667 # 90<->"Aromatic C"
401 34 4 0.00 -0.614 18.692 17.54867 # 90<->"Aromatic C"
402 34 4 0.00 -1.353 19.881 17.54167 # 90<->"Aromatic C"
403 34 5 0.00 -1.309 22.006 17.88767 # 91<->"Aromatic H-C"
404 34 5 0.00 1.088 22.04 18.52267 # 91<->"Aromatic H-C"
405 34 5 0.00 2.397 19.934 18.53467 # 91<->"Aromatic H-C"
406 34 5 0.00 1.309 17.794 17.91267 # 91<->"Aromatic H-C"
407 34 5 0.00 -1.088 17.76 17.27767 # 91<->"Aromatic H-C"
408 34 5 0.00 -2.397 19.866 17.26467 # 91<->"Aromatic H-C"
409 35 4 0.00 -0.739 21.089 23.19267 # 90<->"Aromatic C"
410 35 4 0.00 0.614 21.108 23.55167 # 90<->"Aromatic C"
411 35 4 0.00 1.353 19.919 23.55867 # 90<->"Aromatic C"
412 35 4 0.00 0.739 18.711 23.20667 # 90<->"Aromatic C"
413 35 4 0.00 -0.614 18.692 22.84867 # 90<->"Aromatic C"
414 35 4 0.00 -1.353 19.881 22.84167 # 90<->"Aromatic C"
415 35 5 0.00 -1.309 22.006 23.18767 # 91<->"Aromatic H-C"
416 35 5 0.00 1.088 22.04 23.82267 # 91<->"Aromatic H-C"
417 35 5 0.00 2.397 19.934 23.83467 # 91<->"Aromatic H-C"
418 35 5 0.00 1.309 17.794 23.21267 # 91<->"Aromatic H-C"
419 35 5 0.00 -1.088 17.76 22.57767 # 91<->"Aromatic H-C"
420 35 5 0.00 -2.397 19.866 22.56467 # 91<->"Aromatic H-C"
421 36 4 0.00 -0.739 21.089 28.49267 # 90<->"Aromatic C"
422 36 4 0.00 0.614 21.108 28.85167 # 90<->"Aromatic C"
423 36 4 0.00 1.353 19.919 28.85867 # 90<->"Aromatic C"
424 36 4 0.00 0.739 18.711 28.50667 # 90<->"Aromatic C"
425 36 4 0.00 -0.614 18.692 28.14867 # 90<->"Aromatic C"
426 36 4 0.00 -1.353 19.881 28.14167 # 90<->"Aromatic C"
427 36 5 0.00 -1.309 22.006 28.48767 # 91<->"Aromatic H-C"
428 36 5 0.00 1.088 22.04 29.12267 # 91<->"Aromatic H-C"
429 36 5 0.00 2.397 19.934 29.13467 # 91<->"Aromatic H-C"
430 36 5 0.00 1.309 17.794 28.51267 # 91<->"Aromatic H-C"
431 36 5 0.00 -1.088 17.76 27.87767 # 91<->"Aromatic H-C"
432 36 5 0.00 -2.397 19.866 27.86467 # 91<->"Aromatic H-C"
433 37 4 0.00 -0.739 21.089 33.79267 # 90<->"Aromatic C"
434 37 4 0.00 0.614 21.108 34.15167 # 90<->"Aromatic C"
435 37 4 0.00 1.353 19.919 34.15867 # 90<->"Aromatic C"
436 37 4 0.00 0.739 18.711 33.80667 # 90<->"Aromatic C"
437 37 4 0.00 -0.614 18.692 33.44867 # 90<->"Aromatic C"
438 37 4 0.00 -1.353 19.881 33.44167 # 90<->"Aromatic C"
439 37 5 0.00 -1.309 22.006 33.78767 # 91<->"Aromatic H-C"
440 37 5 0.00 1.088 22.04 34.42267 # 91<->"Aromatic H-C"
441 37 5 0.00 2.397 19.934 34.43467 # 91<->"Aromatic H-C"
442 37 5 0.00 1.309 17.794 33.81267 # 91<->"Aromatic H-C"
443 37 5 0.00 -1.088 17.76 33.17767 # 91<->"Aromatic H-C"
444 37 5 0.00 -2.397 19.866 33.16467 # 91<->"Aromatic H-C"
445 38 4 0.00 -0.739 21.089 39.09267 # 90<->"Aromatic C"
446 38 4 0.00 0.614 21.108 39.45167 # 90<->"Aromatic C"
447 38 4 0.00 1.353 19.919 39.45867 # 90<->"Aromatic C"
448 38 4 0.00 0.739 18.711 39.10667 # 90<->"Aromatic C"
449 38 4 0.00 -0.614 18.692 38.74867 # 90<->"Aromatic C"
450 38 4 0.00 -1.353 19.881 38.74167 # 90<->"Aromatic C"
451 38 5 0.00 -1.309 22.006 39.08767 # 91<->"Aromatic H-C"
452 38 5 0.00 1.088 22.04 39.72267 # 91<->"Aromatic H-C"
453 38 5 0.00 2.397 19.934 39.73467 # 91<->"Aromatic H-C"
454 38 5 0.00 1.309 17.794 39.11267 # 91<->"Aromatic H-C"
455 38 5 0.00 -1.088 17.76 38.47767 # 91<->"Aromatic H-C"
456 38 5 0.00 -2.397 19.866 38.46467 # 91<->"Aromatic H-C"
457 39 4 0.00 -0.739 21.089 44.39267 # 90<->"Aromatic C"
458 39 4 0.00 0.614 21.108 44.75167 # 90<->"Aromatic C"
459 39 4 0.00 1.353 19.919 44.75867 # 90<->"Aromatic C"
460 39 4 0.00 0.739 18.711 44.40667 # 90<->"Aromatic C"
461 39 4 0.00 -0.614 18.692 44.04867 # 90<->"Aromatic C"
462 39 4 0.00 -1.353 19.881 44.04167 # 90<->"Aromatic C"
463 39 5 0.00 -1.309 22.006 44.38767 # 91<->"Aromatic H-C"
464 39 5 0.00 1.088 22.04 45.02267 # 91<->"Aromatic H-C"
465 39 5 0.00 2.397 19.934 45.03467 # 91<->"Aromatic H-C"
466 39 5 0.00 1.309 17.794 44.41267 # 91<->"Aromatic H-C"
467 39 5 0.00 -1.088 17.76 43.77767 # 91<->"Aromatic H-C"
468 39 5 0.00 -2.397 19.866 43.76467 # 91<->"Aromatic H-C"
469 40 4 0.00 -0.739 21.089 49.69267 # 90<->"Aromatic C"
470 40 4 0.00 0.614 21.108 50.05167 # 90<->"Aromatic C"
471 40 4 0.00 1.353 19.919 50.05867 # 90<->"Aromatic C"
472 40 4 0.00 0.739 18.711 49.70667 # 90<->"Aromatic C"
473 40 4 0.00 -0.614 18.692 49.34867 # 90<->"Aromatic C"
474 40 4 0.00 -1.353 19.881 49.34167 # 90<->"Aromatic C"
475 40 5 0.00 -1.309 22.006 49.68767 # 91<->"Aromatic H-C"
476 40 5 0.00 1.088 22.04 50.32267 # 91<->"Aromatic H-C"
477 40 5 0.00 2.397 19.934 50.33467 # 91<->"Aromatic H-C"
478 40 5 0.00 1.309 17.794 49.71267 # 91<->"Aromatic H-C"
479 40 5 0.00 -1.088 17.76 49.07767 # 91<->"Aromatic H-C"
480 40 5 0.00 -2.397 19.866 49.06467 # 91<->"Aromatic H-C"
481 41 4 0.00 -0.739 26.389 1.99267 # 90<->"Aromatic C"
482 41 4 0.00 0.614 26.408 2.35167 # 90<->"Aromatic C"
483 41 4 0.00 1.353 25.219 2.35867 # 90<->"Aromatic C"
484 41 4 0.00 0.739 24.011 2.00667 # 90<->"Aromatic C"
485 41 4 0.00 -0.614 23.992 1.64867 # 90<->"Aromatic C"
486 41 4 0.00 -1.353 25.181 1.64167 # 90<->"Aromatic C"
487 41 5 0.00 -1.309 27.306 1.98767 # 91<->"Aromatic H-C"
488 41 5 0.00 1.088 27.34 2.62267 # 91<->"Aromatic H-C"
489 41 5 0.00 2.397 25.234 2.63467 # 91<->"Aromatic H-C"
490 41 5 0.00 1.309 23.094 2.01267 # 91<->"Aromatic H-C"
491 41 5 0.00 -1.088 23.06 1.37767 # 91<->"Aromatic H-C"
492 41 5 0.00 -2.397 25.166 1.36467 # 91<->"Aromatic H-C"
493 42 4 0.00 -0.739 26.389 7.29267 # 90<->"Aromatic C"
494 42 4 0.00 0.614 26.408 7.65167 # 90<->"Aromatic C"
495 42 4 0.00 1.353 25.219 7.65867 # 90<->"Aromatic C"
496 42 4 0.00 0.739 24.011 7.30667 # 90<->"Aromatic C"
497 42 4 0.00 -0.614 23.992 6.94867 # 90<->"Aromatic C"
498 42 4 0.00 -1.353 25.181 6.94167 # 90<->"Aromatic C"
499 42 5 0.00 -1.309 27.306 7.28767 # 91<->"Aromatic H-C"
500 42 5 0.00 1.088 27.34 7.92267 # 91<->"Aromatic H-C"
501 42 5 0.00 2.397 25.234 7.93467 # 91<->"Aromatic H-C"
502 42 5 0.00 1.309 23.094 7.31267 # 91<->"Aromatic H-C"
503 42 5 0.00 -1.088 23.06 6.67767 # 91<->"Aromatic H-C"
504 42 5 0.00 -2.397 25.166 6.66467 # 91<->"Aromatic H-C"
505 43 4 0.00 -0.739 26.389 12.59267 # 90<->"Aromatic C"
506 43 4 0.00 0.614 26.408 12.95167 # 90<->"Aromatic C"
507 43 4 0.00 1.353 25.219 12.95867 # 90<->"Aromatic C"
508 43 4 0.00 0.739 24.011 12.60667 # 90<->"Aromatic C"
509 43 4 0.00 -0.614 23.992 12.24867 # 90<->"Aromatic C"
510 43 4 0.00 -1.353 25.181 12.24167 # 90<->"Aromatic C"
511 43 5 0.00 -1.309 27.306 12.58767 # 91<->"Aromatic H-C"
512 43 5 0.00 1.088 27.34 13.22267 # 91<->"Aromatic H-C"
513 43 5 0.00 2.397 25.234 13.23467 # 91<->"Aromatic H-C"
514 43 5 0.00 1.309 23.094 12.61267 # 91<->"Aromatic H-C"
515 43 5 0.00 -1.088 23.06 11.97767 # 91<->"Aromatic H-C"
516 43 5 0.00 -2.397 25.166 11.96467 # 91<->"Aromatic H-C"
517 44 4 0.00 -0.739 26.389 17.89267 # 90<->"Aromatic C"
518 44 4 0.00 0.614 26.408 18.25167 # 90<->"Aromatic C"
519 44 4 0.00 1.353 25.219 18.25867 # 90<->"Aromatic C"
520 44 4 0.00 0.739 24.011 17.90667 # 90<->"Aromatic C"
521 44 4 0.00 -0.614 23.992 17.54867 # 90<->"Aromatic C"
522 44 4 0.00 -1.353 25.181 17.54167 # 90<->"Aromatic C"
523 44 5 0.00 -1.309 27.306 17.88767 # 91<->"Aromatic H-C"
524 44 5 0.00 1.088 27.34 18.52267 # 91<->"Aromatic H-C"
525 44 5 0.00 2.397 25.234 18.53467 # 91<->"Aromatic H-C"
526 44 5 0.00 1.309 23.094 17.91267 # 91<->"Aromatic H-C"