ITEM: TIMESTEP
0
ITEM: NUMBER OF ATOMS
59856
ITEM: BOX BOUNDS pp pp ff
0.0000000000000000e+00 6.0500000000000000e+01
0.0000000000000000e+00 6.0500000000000000e+01
-3.0000000000000000e+00 2.3100000000000000e+02
ITEM: ATOMS id type xs ys zs
62785 1 0.00121221 0.00120909 0.0120595
62786 1 0.00118345 0.0339503 0.0220709
62788 1 0.0339567 0.0339405 0.012118
62789 1 0.00113795 0.067099 0.0120976
62791 1 0.0339039 0.0671379 0.0221946
62845 1 0.0670938 0.00114017 0.012103
62846 1 0.0671277 0.0339122 0.0222088
62849 1 0.0671067 0.0670998 0.0121619
62787 1 0.0339546 0.00118715 0.0221409
62847 1 0.100418 0.00106535 0.0220854
62848 1 0.100454 0.0338943 0.012137
62851 1 0.100479 0.0671232 0.0221849
62905 1 0.133915 0.00111063 0.0121038
62906 1 0.133936 0.033882 0.022079
62907 1 0.167378 0.00113965 0.0222538
62908 1 0.167351 0.0338701 0.0121299
62909 1 0.133909 0.0670779 0.0121424
62911 1 0.167339 0.0670657 0.022247
62966 1 0.200787 0.033916 0.0220094
62968 1 0.234323 0.0338873 0.0121279
62969 1 0.200822 0.0670835 0.012132
62971 1 0.2343 0.0670966 0.0221901
63025 1 0.267755 0.00112731 0.0121044
63026 1 0.267782 0.033895 0.0222087
63029 1 0.267773 0.0670879 0.0121636
62967 1 0.234323 0.0011543 0.0221312
62965 1 0.200818 0.00110387 0.012089
63027 1 0.301185 0.00103933 0.0220475
63028 1 0.301225 0.0338956 0.0121401
63031 1 0.301247 0.0671296 0.022167
63085 1 0.334729 0.00112363 0.0121095
63086 1 0.334716 0.0338671 0.0221253
63087 1 0.368193 0.00114799 0.022257
63088 1 0.368165 0.0338653 0.0121306
63089 1 0.334716 0.0670707 0.0121506
63091 1 0.368173 0.0670372 0.0222467
63145 1 0.40164 0.00110133 0.0120846
63146 1 0.401655 0.033909 0.0219932
63148 1 0.435147 0.033882 0.0121264
63149 1 0.401645 0.0670691 0.0121236
63151 1 0.435116 0.0671021 0.0222052
63205 1 0.468582 0.0011312 0.0121054
63206 1 0.468581 0.0338999 0.0222008
63209 1 0.468594 0.0670904 0.0121658
63147 1 0.435147 0.00113859 0.0221477
62792 1 0.0338982 0.100448 0.0121355
62793 1 0.0011091 0.133913 0.0121041
62795 1 0.03388 0.133915 0.0220647
62796 1 0.0338712 0.167358 0.0121338
62850 1 0.0671141 0.100478 0.0222044
62853 1 0.0670773 0.133912 0.0121409
62854 1 0.0670634 0.167338 0.0222428
62790 1 0.00107331 0.100414 0.0221119
62794 1 0.00113965 0.16739 0.0222285
62852 1 0.100448 0.100451 0.012138
62855 1 0.100425 0.133936 0.0220252
62856 1 0.100458 0.167366 0.0121438
62910 1 0.133938 0.100442 0.0220472
62912 1 0.16735 0.100457 0.0121425
62913 1 0.133927 0.133932 0.0121435
62914 1 0.133909 0.167374 0.022178
62915 1 0.167376 0.133909 0.0221895
62916 1 0.167369 0.167371 0.0121671
62970 1 0.200752 0.100363 0.0220306
62972 1 0.234332 0.100446 0.0121515
62973 1 0.200812 0.133917 0.0121553
62974 1 0.200835 0.167398 0.0221862
62975 1 0.234327 0.133912 0.0220729
62976 1 0.234307 0.167347 0.0121452
63030 1 0.267788 0.100467 0.0222163
63033 1 0.267761 0.133907 0.0121414
63034 1 0.267746 0.167331 0.0222456
63032 1 0.301219 0.100453 0.012133
63035 1 0.301227 0.13394 0.0219973
63036 1 0.30123 0.167358 0.0121356
63090 1 0.334765 0.100425 0.0220602
63092 1 0.368164 0.100453 0.0121435
63093 1 0.334731 0.133922 0.0121396
63094 1 0.334717 0.167373 0.0221966
63095 1 0.368171 0.133918 0.0221879
63096 1 0.368174 0.16737 0.0121691
63150 1 0.401569 0.100358 0.0219958
63152 1 0.435163 0.100452 0.012155
63153 1 0.40164 0.13392 0.0121532
63154 1 0.401658 0.167407 0.0221596
63155 1 0.435122 0.133899 0.022119
63156 1 0.435135 0.167343 0.0121538
63210 1 0.4686 0.100477 0.0222156
63213 1 0.468587 0.13391 0.0121444
63214 1 0.468585 0.167316 0.0222433
62797 1 0.00110723 0.200822 0.0120973
62798 1 0.00114831 0.234322 0.0220897
62799 1 0.0339168 0.200795 0.0220466
62800 1 0.0338972 0.234319 0.012133
62801 1 0.00112712 0.267761 0.0121034
62803 1 0.0338901 0.267793 0.0222006
62857 1 0.0670757 0.200819 0.0121394
62858 1 0.0671019 0.234308 0.0221888
62861 1 0.0670866 0.267767 0.012168
62859 1 0.100375 0.200749 0.0220271
62860 1 0.100444 0.234317 0.0121539
62863 1 0.100477 0.267792 0.0222044
62917 1 0.133927 0.200817 0.0121481
62918 1 0.133925 0.234313 0.0220655
62919 1 0.167386 0.200833 0.0221933
62920 1 0.16735 0.234308 0.0121481
62921 1 0.133898 0.267756 0.0121423
62923 1 0.167323 0.267746 0.0222447
62977 1 0.200812 0.200807 0.0121374
62978 1 0.200793 0.234345 0.0220084
62979 1 0.234351 0.200812 0.0220279
62980 1 0.234319 0.234322 0.0121414
62981 1 0.200822 0.267762 0.0121435
62983 1 0.234306 0.267772 0.0221881
63037 1 0.267749 0.200827 0.0121386
63038 1 0.267775 0.234314 0.0221969
63041 1 0.26777 0.267771 0.0121685
63039 1 0.301144 0.200717 0.0219778
63040 1 0.301223 0.234324 0.0121555
63043 1 0.301248 0.2678 0.0221818
63097 1 0.334741 0.200825 0.0121529
63098 1 0.334719 0.2343 0.0221078
63099 1 0.368197 0.20084 0.0222085
63100 1 0.36817 0.234306 0.0121452
63101 1 0.334711 0.267754 0.0121495
63103 1 0.368166 0.267733 0.0222476
63157 1 0.401642 0.200813 0.0121344
63158 1 0.401664 0.234346 0.0219935
63159 1 0.435193 0.2008 0.0220506
63160 1 0.435153 0.234326 0.0121411
63161 1 0.401649 0.267756 0.0121311
63163 1 0.435118 0.267784 0.0222117
63217 1 0.468572 0.200821 0.0121388
63218 1 0.46857 0.234321 0.0221835
63221 1 0.468591 0.267775 0.0121684
62804 1 0.033891 0.301219 0.0121337
62805 1 0.00111278 0.334724 0.0121045
62806 1 0.00115781 0.368201 0.0222454
62807 1 0.0338679 0.334705 0.0220879
62808 1 0.0338661 0.368171 0.0121335
62862 1 0.0671217 0.301243 0.0221764
62865 1 0.0670677 0.334716 0.012146
62866 1 0.0670445 0.368161 0.0222479
62802 1 0.00104342 0.301175 0.0220636
62864 1 0.10044 0.301213 0.0121381
62867 1 0.100414 0.334755 0.0220303
62868 1 0.100454 0.368175 0.0121436
62922 1 0.133946 0.301237 0.0220034
62924 1 0.167348 0.301233 0.0121364
62925 1 0.133923 0.334737 0.012142
62926 1 0.133917 0.368171 0.0221797
62927 1 0.167384 0.334713 0.0222039
62928 1 0.16737 0.36818 0.0121696
62982 1 0.200726 0.301131 0.0219767
62984 1 0.23433 0.301229 0.0121494
62985 1 0.20082 0.334739 0.0121563
62986 1 0.200847 0.368205 0.0222023
62987 1 0.234313 0.33471 0.0221041
62988 1 0.234303 0.368166 0.0121447
63042 1 0.267791 0.30124 0.0221921
63045 1 0.267757 0.334716 0.0121455
63046 1 0.267734 0.368166 0.0222478
63044 1 0.301222 0.301224 0.0121354
63047 1 0.301215 0.334765 0.0220097
63048 1 0.301236 0.368169 0.012137
63102 1 0.334774 0.301229 0.0220265
63104 1 0.368158 0.301233 0.0121342
63105 1 0.334737 0.334736 0.0121391
63106 1 0.334719 0.368176 0.0222024
63107 1 0.368179 0.334723 0.0222056
63108 1 0.368182 0.368183 0.0121669
63162 1 0.401552 0.301133 0.0219324
63164 1 0.435163 0.301233 0.0121478
63165 1 0.401642 0.334742 0.0121492
63166 1 0.401659 0.368194 0.0221759
63167 1 0.435113 0.334693 0.0221443
63168 1 0.435132 0.368162 0.0121514
63222 1 0.468594 0.301241 0.0221946
63225 1 0.46858 0.334717 0.01215
63226 1 0.468581 0.368155 0.0222484
62809 1 0.00110391 0.401646 0.0120968
62810 1 0.00113138 0.435157 0.0221022
62811 1 0.0339208 0.401654 0.0220194
62812 1 0.0338933 0.43515 0.0121324
62813 1 0.00112533 0.468587 0.012102
62815 1 0.0338911 0.468599 0.0222
62869 1 0.0670717 0.401643 0.0121316
62870 1 0.0671065 0.435129 0.0222068
62873 1 0.0670862 0.468588 0.0121702
62871 1 0.100363 0.401563 0.0219932
62872 1 0.100449 0.435152 0.012154
62875 1 0.100487 0.468611 0.0222135
62929 1 0.133928 0.401643 0.012144
62930 1 0.13391 0.435114 0.0221027
62931 1 0.167396 0.401652 0.0221705
62932 1 0.167345 0.435133 0.0121495
62933 1 0.133905 0.468577 0.012144
62935 1 0.167316 0.468584 0.0222472
62989 1 0.200809 0.401635 0.0121373
62990 1 0.200778 0.435183 0.0220254
62991 1 0.234354 0.401676 0.0220023
62992 1 0.234322 0.435152 0.0121407
62993 1 0.200822 0.46858 0.0121436
62995 1 0.234309 0.468569 0.0221845
63049 1 0.267748 0.40165 0.0121327
63050 1 0.267789 0.43513 0.0222177
63053 1 0.267769 0.468594 0.0121668
63051 1 0.301143 0.401545 0.0219351
63052 1 0.301225 0.435156 0.0121521
63055 1 0.301248 0.468609 0.0221907
63109 1 0.334749 0.401647 0.0121439
63110 1 0.334702 0.435108 0.0221419
63111 1 0.368192 0.40165 0.022186
63112 1 0.368164 0.435132 0.0121474
63113 1 0.334712 0.468575 0.0121494
63115 1 0.368156 0.46858 0.0222499
63169 1 0.401643 0.40164 0.0121369
63170 1 0.401644 0.435182 0.0220144
63171 1 0.435188 0.401653 0.0220369
63172 1 0.435156 0.435155 0.0121427
63173 1 0.401647 0.468578 0.0121312
63175 1 0.435122 0.46859 0.0222133
63229 1 0.468568 0.401645 0.0121276
63230 1 0.468589 0.435134 0.0222097
63233 1 0.468591 0.46859 0.0121635
1 4 0.0123969 0.0470452 0.0363815
2 4 0.0352878 0.050493 0.0369797
3 4 0.0496547 0.0323904 0.0373156
4 4 0.0415349 0.0106859 0.0368447
5 4 0.0186484 0.00711965 0.0362687
6 4 0.00411941 0.0252462 0.0361515
7 5 0.00122394 0.0608551 0.0357839
587 5 0.0182489 0.0917097 0.0345703
5772 5 0.0914606 0.0195094 0.0340264
8 5 0.0421725 0.0669276 0.0370419
9 5 0.0668948 0.0356975 0.0378624
13 4 0.0181712 0.0499614 0.0518044
14 4 0.0404375 0.0505294 0.0535466
15 4 0.0531235 0.0310374 0.0535112
16 4 0.0436846 0.0109904 0.0516699
17 4 0.0213437 0.0103882 0.0499911
18 4 0.00859214 0.0298675 0.0500558
19 5 0.00840269 0.0648791 0.0518103
20 5 0.0478077 0.0658342 0.0549516
21 5 0.0700934 0.0315183 0.0549211
598 5 0.0551049 0.0970477 0.0503336
599 5 0.0158553 0.0957989 0.0471319
5784 5 0.0918369 0.0294744 0.0471783
611 5 0.0172451 0.0971471 0.0648317
5796 5 0.0931378 0.031177 0.0651048
5761 4 0.114172 0.0458339 0.0361362
5762 4 0.136376 0.0508752 0.0373881
5763 4 0.15203 0.0338833 0.0378146
5764 4 0.145961 0.0117125 0.0368426
5765 4 0.123813 0.00660028 0.0356476
5766 4 0.108005 0.0236266 0.0353358
5767 5 0.102049 0.0588341 0.0356322
6346 5 0.159451 0.0999477 0.0365018
6347 5 0.119382 0.0901416 0.0350106
11532 5 0.189211 0.0173492 0.034528
5768 5 0.141896 0.0675875 0.0380814
5769 5 0.168589 0.0384484 0.0389982
5773 4 0.116697 0.0496375 0.0512502
5774 4 0.13817 0.0501026 0.053565
5775 4 0.150825 0.0305943 0.0537797
5776 4 0.142087 0.0106188 0.0516665
5777 4 0.120549 0.010144 0.0493944
5778 4 0.107976 0.0296823 0.0491443
5779 5 0.106922 0.0645214 0.0510502
5780 5 0.144974 0.0653367 0.0551985
5781 5 0.167265 0.031003 0.0555761
6358 5 0.153945 0.0967962 0.0508879
6359 5 0.115373 0.0958136 0.0471613
11544 5 0.189157 0.0295868 0.0476051
6371 5 0.117066 0.0973432 0.0642356
11556 5 0.190492 0.0311749 0.0651744
11521 4 0.212173 0.044299 0.0361389
11522 4 0.234477 0.0495388 0.0371109
11523 4 0.250079 0.0326434 0.0376676
11524 4 0.243909 0.0103257 0.0371154
11525 4 0.221579 0.00486979 0.0362325
11526 4 0.205833 0.02181 0.0357776
11527 5 0.200171 0.0572727 0.0353031
12107 5 0.218894 0.0906958 0.0342782
17292 5 0.288339 0.0183724 0.0339498
17287 5 0.298038 0.058016 0.0354551
11528 5 0.24003 0.0663965 0.0373168
11529 5 0.266756 0.0374045 0.0385177
11533 4 0.214541 0.0499091 0.0513971
11534 4 0.236224 0.0503822 0.0535776
11535 4 0.248825 0.0308384 0.0537778
11536 4 0.239807 0.0107904 0.0517968
11537 4 0.218021 0.0102818 0.0496918
11538 4 0.205508 0.0298628 0.0494446
11539 5 0.20483 0.0648413 0.051203
11540 5 0.243235 0.065652 0.0551242
11541 5 0.265434 0.0312704 0.0554641
12118 5 0.251221 0.096689 0.0506972
12119 5 0.212923 0.0957332 0.0467732
17304 5 0.286669 0.0295189 0.0472948
12131 5 0.214474 0.0973724 0.0642484
17316 5 0.288008 0.0311798 0.0651797
17281 4 0.310339 0.045256 0.0360799
17282 4 0.332265 0.0508033 0.0374757
17283 4 0.348134 0.0341117 0.0380755
17284 4 0.342653 0.0117703 0.0371125
17285 4 0.320746 0.0061719 0.0358001
17286 4 0.304724 0.022891 0.0353197
17866 5 0.355057 0.0996407 0.0364145
17867 5 0.315006 0.0902259 0.0347261
23052 5 0.384166 0.0186548 0.0344117
23047 5 0.395433 0.0582467 0.0354634
17288 5 0.337316 0.0676848 0.0381344
17289 5 0.364409 0.0390453 0.0394037
17293 4 0.311702 0.0497162 0.0512825
17294 4 0.333227 0.0501767 0.0535672
17295 4 0.345846 0.0306461 0.0537875
17296 4 0.337022 0.0106542 0.0517078
17297 4 0.315435 0.0101899 0.0494641
17298 4 0.30289 0.0297453 0.0492126
17299 5 0.301946 0.0646107 0.0510881
17300 5 0.340088 0.0654214 0.055178
17301 5 0.362323 0.0310497 0.0555618
17878 5 0.349017 0.0967872 0.0507923
17879 5 0.310404 0.0957516 0.0470903
23064 5 0.384218 0.0294028 0.0476018
23059 5 0.399777 0.0646641 0.0512283
17891 5 0.311991 0.0973749 0.0642493
23076 5 0.385524 0.0311821 0.0651827
23041 4 0.407282 0.0450929 0.0362266
23042 4 0.429698 0.0499788 0.03717
23043 4 0.445122 0.0328417 0.0376042
23044 4 0.438609 0.010635 0.0369907
23045 4 0.416225 0.00555009 0.0360548
23046 4 0.400728 0.0227274 0.0357346
23627 5 0.414591 0.0906528 0.0345478
28806 4 0.499848 0.0217776 0.035422
28807 5 0.492534 0.056893 0.0352231
28812 5 0.483467 0.0167002 0.0340906
23048 5 0.435573 0.0667184 0.0374644
23049 5 0.46196 0.0373189 0.0384168
23053 4 0.409539 0.0497613 0.0514037
23054 4 0.431214 0.0502736 0.0535871
23055 4 0.443875 0.0307604 0.053768
23056 4 0.434944 0.0107247 0.0517496
23057 4 0.413176 0.0101858 0.0496343
23058 4 0.40058 0.0297182 0.0494274
23060 5 0.43817 0.0655412 0.0551544
23061 5 0.460463 0.0312154 0.0554689
23638 5 0.44621 0.0966878 0.0507815
23639 5 0.40787 0.0957401 0.0468848
28818 4 0.497968 0.0298338 0.0492757
28819 5 0.49714 0.0647441 0.0510949
28824 5 0.481736 0.0296079 0.0473644
23651 5 0.409495 0.0973644 0.0642524
28836 5 0.483044 0.0311746 0.0651808
586 5 0.0578655 0.101203 0.0359909
577 4 0.0126075 0.147128 0.0364107
578 4 0.0350453 0.152564 0.0372157
579 4 0.0513388 0.136093 0.0371317
580 4 0.0453721 0.113885 0.0362602
581 4 0.0229417 0.108418 0.0355396
582 4 0.00656462 0.124943 0.0356008
583 5 3.83579e-05 0.159807 0.0362794
1162 5 0.0553588 0.19934 0.0357625
1163 5 0.0145902 0.191186 0.0348764
6348 5 0.0913896 0.118223 0.0348007
584 5 0.0401264 0.169334 0.0379113
585 5 0.0682821 0.140945 0.0377338
589 4 0.0175031 0.148913 0.0520114
590 4 0.0396465 0.149594 0.0538595
591 4 0.0530664 0.130704 0.0533603
592 4 0.0445491 0.111256 0.0509039
593 4 0.0223392 0.110519 0.0491222
594 4 0.00879053 0.129306 0.0496866
595 5 0.00718945 0.163397 0.0523732
596 5 0.0463686 0.164531 0.0556925
597 5 0.0699081 0.131222 0.0548682
1174 5 0.0552544 0.194689 0.0504001
1175 5 0.01578 0.193425 0.0474151
6360 5 0.0921759 0.129356 0.0474556
1187 5 0.0172936 0.194724 0.0647972
6372 5 0.0934645 0.130864 0.0648838
6337 4 0.114073 0.145706 0.0363166
6338 4 0.136371 0.151247 0.0372426
6339 4 0.152544 0.134827 0.0374645
6340 4 0.146867 0.112535 0.0367034
6341 4 0.124477 0.106812 0.0359859
6342 4 0.108132 0.123204 0.0358445
6343 5 0.101578 0.158395 0.035735
6922 5 0.159329 0.198876 0.036117
6923 5 0.119716 0.189932 0.0340103
12108 5 0.190767 0.119299 0.0339019
6344 5 0.141534 0.16807 0.0376802
6345 5 0.169197 0.139868 0.0381881
6349 4 0.116769 0.149297 0.0517289
6350 4 0.138443 0.149816 0.0539172
6351 4 0.151753 0.130758 0.0536832
6352 4 0.143474 0.111166 0.0512508
6353 4 0.121667 0.110551 0.0491765
6354 4 0.108436 0.129638 0.0493551
6355 5 0.106568 0.163927 0.0518323
6356 5 0.14492 0.164787 0.0557837
6357 5 0.168362 0.131222 0.0553611
6934 5 0.154029 0.194288 0.0505618
6935 5 0.115782 0.193307 0.0466299
12120 5 0.18938 0.129083 0.0471969
6365 4 0.122938 0.111717 0.0665182
6947 5 0.117119 0.194911 0.0642004
12132 5 0.190817 0.130853 0.0649486
12106 5 0.25803 0.10007 0.0366406
12097 4 0.212689 0.146009 0.0362284
12098 4 0.234664 0.151475 0.0376116
12099 4 0.250869 0.13496 0.0378399
12100 4 0.245475 0.11277 0.0366513
12101 4 0.223458 0.107281 0.0354162
12102 4 0.207182 0.123798 0.0352265
12103 5 0.200193 0.158704 0.0358365
12682 5 0.257805 0.198761 0.0363846
12683 5 0.217807 0.189151 0.0346349
17868 5 0.287503 0.118603 0.0345015
17863 5 0.297594 0.158531 0.0358248
12104 5 0.239606 0.168159 0.0385849
12105 5 0.267268 0.13992 0.0390764
12109 4 0.213704 0.148898 0.0516081
12110 4 0.235265 0.149433 0.0538726
12111 4 0.248673 0.130445 0.0536235
12112 4 0.240643 0.110978 0.0510671
12113 4 0.218995 0.110386 0.048876
12114 4 0.205611 0.12936 0.0491109
12115 5 0.203391 0.163437 0.0517573
12116 5 0.241571 0.164334 0.0558197
12117 5 0.265162 0.130879 0.055386
12694 5 0.251458 0.194362 0.0507576
12695 5 0.212893 0.193365 0.0470399
17880 5 0.286974 0.129114 0.0475339
12125 4 0.220371 0.111748 0.0665261
12707 5 0.21444 0.19491 0.0642349
17892 5 0.288334 0.13085 0.0649527
17857 4 0.309954 0.145739 0.0363875
17858 4 0.332231 0.151121 0.0373675
17859 4 0.348301 0.13455 0.0375122
17860 4 0.342496 0.112307 0.0366596
17861 4 0.320112 0.106761 0.0358382
17862 4 0.304002 0.123321 0.0357553
18442 5 0.355885 0.199065 0.0365127
18443 5 0.316627 0.189825 0.0341626
23628 5 0.386356 0.118687 0.0339222
23623 5 0.395266 0.158542 0.0356437
17864 5 0.337547 0.167861 0.0379304
17865 5 0.365036 0.139427 0.038268
17869 4 0.311639 0.149116 0.0517558
17870 4 0.333355 0.149682 0.0539161
17871 4 0.346726 0.130672 0.0536453
17872 4 0.338496 0.111113 0.0511823
17873 4 0.316666 0.110466 0.0491224
17874 4 0.303328 0.129467 0.0493705
17875 5 0.301381 0.163699 0.0519019
17876 5 0.339811 0.164634 0.0557993
17877 5 0.36334 0.131152 0.0553222
18454 5 0.348844 0.194259 0.0506331
18455 5 0.310549 0.193297 0.0467284
23640 5 0.38447 0.129193 0.0472396
23635 5 0.398583 0.163599 0.0517514
17885 4 0.3179 0.111758 0.0665224
18467 5 0.311927 0.194868 0.0642733
23652 5 0.385841 0.130841 0.0649541
23626 5 0.453591 0.100502 0.0369245
23617 4 0.407948 0.146 0.0361487
23618 4 0.429822 0.151751 0.037573
23619 4 0.446136 0.135421 0.0379351
23620 4 0.441062 0.113122 0.0368449
23621 4 0.419162 0.107326 0.0356009
23622 4 0.402737 0.123622 0.0352489
24202 5 0.45243 0.198556 0.0362142
24203 5 0.412391 0.189564 0.0343436
29382 4 0.498575 0.123456 0.0356763
29383 5 0.492469 0.158696 0.0359332
29388 5 0.482074 0.1191 0.0343667
23624 5 0.434429 0.168577 0.0384422
23625 5 0.462361 0.140612 0.0391875
23629 4 0.408862 0.149034 0.0516176
23630 4 0.430435 0.149558 0.0538746
23631 4 0.443794 0.130531 0.0536469
23632 4 0.435681 0.111019 0.0511328
23633 4 0.414011 0.110433 0.0489548
23634 4 0.400705 0.129468 0.0491501
23636 5 0.436784 0.164482 0.0557995
23637 5 0.460304 0.130963 0.0553951
24214 5 0.446653 0.194367 0.0506777
24215 5 0.408109 0.193322 0.0469474
29394 4 0.498329 0.129338 0.0493234
29395 5 0.496246 0.163509 0.0518989
29400 5 0.481988 0.128965 0.0474811
23645 4 0.415414 0.111755 0.0665195
24227 5 0.40945 0.194878 0.0642729
29412 5 0.483362 0.130835 0.0649649
1153 4 0.0118855 0.246642 0.0367271
1154 4 0.0346398 0.25112 0.0372744
1155 4 0.0501777 0.234039 0.037103
1156 4 0.0431676 0.212177 0.0363332
1157 4 0.0203681 0.207535 0.0359099
1158 4 0.00472699 0.224612 0.036175
1738 5 0.0575365 0.298036 0.0355483
1739 5 0.0174922 0.289055 0.0342377
6924 5 0.0915729 0.218428 0.0341504
1160 5 0.0408226 0.267629 0.0377246
1161 5 0.0673647 0.238182 0.0374283
1165 4 0.0178746 0.246702 0.052165
1166 4 0.0401526 0.247392 0.0538986
1167 4 0.0535101 0.228467 0.0533669
1168 4 0.0447819 0.20895 0.0509992
1169 4 0.0224266 0.208186 0.0493488
1170 4 0.00894662 0.227014 0.049944
1171 5 0.0076365 0.261248 0.0525258
1172 5 0.047025 0.262379 0.0556629
1173 5 0.0704705 0.229009 0.0547774
1750 5 0.0552894 0.292159 0.0501798
1751 5 0.016014 0.290886 0.0470271
6936 5 0.0921033 0.226549 0.0471218
1763 5 0.0172889 0.292237 0.0648018
6948 5 0.093503 0.228433 0.0648568
6913 4 0.114043 0.244941 0.0364022
6914 4 0.136242 0.250083 0.0376579
6915 4 0.152431 0.233565 0.0376371
6916 4 0.146755 0.211568 0.0363509
6917 4 0.124507 0.206349 0.0352661
6918 4 0.108205 0.222866 0.0353309
6919 5 0.101529 0.257646 0.0361964
7498 5 0.159696 0.296952 0.0364846
7499 5 0.119858 0.287079 0.0346543
12684 5 0.190036 0.216995 0.0344762
12679 5 0.199769 0.257084 0.0358378
6920 5 0.141469 0.266542 0.0387369
6921 5 0.169055 0.238265 0.0387124
6925 4 0.11627 0.2463 0.0516111
6926 4 0.137823 0.246847 0.0538801
6927 4 0.151321 0.227935 0.0535807
6928 4 0.143412 0.208535 0.0509656
6929 4 0.121771 0.207917 0.0487722
6930 4 0.108292 0.226807 0.0490629
6931 5 0.105904 0.260802 0.0517843
6932 5 0.144046 0.26171 0.0558653
6933 5 0.167793 0.22838 0.0553518
7510 5 0.153898 0.291815 0.0508397
7511 5 0.115447 0.290859 0.0470458
12696 5 0.189485 0.226784 0.0474749
6941 4 0.122984 0.209285 0.0664845
7523 5 0.117115 0.292436 0.0642059
12708 5 0.190798 0.228399 0.0649416
12673 4 0.212276 0.244414 0.0363917
12674 4 0.234487 0.249957 0.0374232
12675 4 0.250723 0.233571 0.0375683
12676 4 0.245151 0.21132 0.0366701
12677 4 0.222805 0.205622 0.0358329
12678 4 0.206506 0.221973 0.0357273
13258 5 0.257892 0.296844 0.0361643
13259 5 0.218275 0.288184 0.033987
18444 5 0.288552 0.21813 0.0338998
18439 5 0.297816 0.257526 0.0359064
12680 5 0.239557 0.266717 0.0380238
12681 5 0.267362 0.238577 0.0383663
12685 4 0.214118 0.246714 0.0517344
12686 4 0.235823 0.247255 0.0539038
12687 4 0.249188 0.228242 0.0536254
12688 4 0.24096 0.208706 0.0511499
12689 4 0.219142 0.208078 0.0490804
12690 4 0.205818 0.227093 0.0493294
12691 5 0.203865 0.261305 0.0518799
12692 5 0.242269 0.262203 0.0557919
12693 5 0.265799 0.228702 0.0553018
13270 5 0.251447 0.291795 0.0505387
13271 5 0.213127 0.290819 0.0466564
18456 5 0.286943 0.226615 0.0471995
12701 4 0.220362 0.2093 0.0665023
13283 5 0.214408 0.292425 0.0642376
18468 5 0.288339 0.228401 0.0649348
18433 4 0.310394 0.244913 0.0362932
18434 4 0.332323 0.250267 0.0377512
18435 4 0.348591 0.233849 0.0379151
18436 4 0.343319 0.211741 0.0366214
18437 4 0.32128 0.20631 0.0353955
18438 4 0.304958 0.222739 0.0352398
19018 5 0.355468 0.296576 0.0363955
19019 5 0.315614 0.287256 0.0344296
24204 5 0.384908 0.217885 0.0343729
24199 5 0.395018 0.257559 0.0360457
18440 5 0.337152 0.266848 0.038819
18441 5 0.364946 0.238716 0.0391792
18445 4 0.311256 0.246405 0.0516237
18446 4 0.332834 0.246941 0.0538777
18447 4 0.346275 0.227981 0.0535989
18448 4 0.338266 0.208544 0.0510209
18449 4 0.316606 0.207948 0.0488393
18450 4 0.303186 0.226889 0.0491059
18451 5 0.300923 0.260931 0.0517895
18452 5 0.339128 0.261829 0.0558359
18453 5 0.362776 0.228412 0.0553527
19030 5 0.349001 0.291842 0.050741
19031 5 0.310474 0.290835 0.0469942
24216 5 0.384516 0.22657 0.0474793
24211 5 0.398783 0.261083 0.0519173
18461 4 0.317892 0.209316 0.0665091
19043 5 0.311963 0.292403 0.0642209
24228 5 0.385854 0.228394 0.064941
24193 4 0.407365 0.24472 0.036507
24194 4 0.42968 0.249951 0.0375163
24195 4 0.445727 0.233362 0.0375529
24196 4 0.439864 0.211232 0.0365623
24197 4 0.417455 0.20588 0.0356483
24198 4 0.401363 0.222425 0.035693
24778 5 0.453507 0.297297 0.0365112
24779 5 0.414251 0.287805 0.0341972
29958 4 0.499874 0.222155 0.0352943
29959 5 0.492266 0.257058 0.0356001
29964 5 0.483519 0.217022 0.0339608
24200 5 0.435071 0.266573 0.0382297
24201 5 0.462499 0.238098 0.0383412
24205 4 0.40909 0.246537 0.0517477
24206 4 0.430801 0.247124 0.0539125
24207 4 0.444236 0.228165 0.0536074
24208 4 0.436098 0.208662 0.0510927
24209 4 0.414288 0.208001 0.0490176
24210 4 0.400865 0.226929 0.0493182
24212 5 0.437198 0.262057 0.0558214
24213 5 0.460837 0.228646 0.0552933
24790 5 0.446381 0.29177 0.0506506
24791 5 0.408055 0.290797 0.0467697
29970 4 0.498281 0.227021 0.0491628
29971 5 0.496145 0.261137 0.051779
29976 5 0.482044 0.226752 0.0472515
24221 4 0.415418 0.209326 0.0665066
24803 5 0.409435 0.292358 0.0641886
29988 5 0.483372 0.228403 0.0649462
1729 4 0.0124491 0.343951 0.036631
1730 4 0.0349854 0.34909 0.0374084
1731 4 0.0512272 0.332645 0.0370678
1732 4 0.0450555 0.310647 0.0360431
1733 4 0.0225229 0.305457 0.0354069
1734 4 0.00622719 0.32195 0.0356968
2314 5 0.0561686 0.394986 0.0360267
2315 5 0.0156046 0.386476 0.0347486
7500 5 0.0915791 0.314667 0.0345213
1736 5 0.0403077 0.365629 0.038262
1737 5 0.0682875 0.337278 0.0375507
1741 4 0.0175456 0.343841 0.0520454
1742 4 0.0397272 0.34454 0.0538612
1743 4 0.0532054 0.325718 0.0532925
1744 4 0.0447198 0.306337 0.0507925
1745 4 0.0224777 0.305578 0.0490397
1746 4 0.00885875 0.324282 0.0496853
1747 5 0.00719353 0.358285 0.0524554
1748 5 0.0464276 0.359433 0.0557238
1749 5 0.0700658 0.326246 0.0547839
2326 5 0.0551251 0.389639 0.0504681
2327 5 0.0157171 0.388388 0.0474225
7512 5 0.092215 0.324413 0.047341
2339 5 0.0172927 0.389759 0.0648016
7524 5 0.0935188 0.325963 0.0648561
7489 4 0.113904 0.342255 0.0363399
7490 4 0.1361 0.347919 0.0373737
7491 4 0.152435 0.331673 0.0375938
7492 4 0.147009 0.309404 0.0367209
7493 4 0.124715 0.303566 0.0358649
7494 4 0.108188 0.31975 0.0357036
7495 5 0.101293 0.354867 0.0357699
8074 5 0.159025 0.39447 0.0358629
8075 5 0.11895 0.386221 0.034
13260 5 0.190503 0.316801 0.0340432
7496 5 0.140965 0.364752 0.0379296
7497 5 0.168952 0.336831 0.0384423
7501 4 0.116694 0.344294 0.0516757
7502 4 0.138326 0.344809 0.0538934
7503 4 0.15165 0.325756 0.0536601
7504 4 0.143434 0.306194 0.0511966
7505 4 0.12168 0.305587 0.0490835
7506 4 0.108433 0.324667 0.0492663
7507 5 0.106483 0.358922 0.0517754
7508 5 0.144751 0.359778 0.0557753
7509 5 0.168225 0.326211 0.0553594
8086 5 0.154154 0.389339 0.0504949
8087 5 0.115844 0.388363 0.046609
13272 5 0.18939 0.324029 0.0472195
7517 4 0.122982 0.306802 0.066493
8099 5 0.117113 0.389955 0.0642059
13284 5 0.190764 0.325905 0.0649523
13249 4 0.2128 0.343133 0.0364408
13250 4 0.234892 0.348138 0.0378162
13251 4 0.251023 0.331545 0.0377969
13252 4 0.245364 0.309603 0.0364246
13253 4 0.223155 0.304523 0.0352866
13254 4 0.20701 0.321136 0.0353185
13255 5 0.200355 0.355869 0.0361732
13834 5 0.258372 0.394573 0.0366208
13835 5 0.218853 0.384732 0.0344766
19020 5 0.2879 0.315205 0.0343025
19015 5 0.297614 0.355086 0.0359077
13256 5 0.240075 0.364554 0.038951
13257 5 0.267594 0.336125 0.0389668
13261 4 0.213705 0.343802 0.0516453
13262 4 0.235309 0.344356 0.0538821
13263 4 0.248801 0.325439 0.0535657
13264 4 0.240835 0.306042 0.0509576
13265 4 0.219154 0.305429 0.0487908
13266 4 0.20566 0.324309 0.0491109
13267 5 0.203345 0.358309 0.0518343
13268 5 0.241578 0.359229 0.0558545
13269 5 0.265314 0.325891 0.0553112
13846 5 0.251286 0.389306 0.0508017
13847 5 0.212823 0.388349 0.047009
19032 5 0.287015 0.324207 0.0474477
13277 4 0.220345 0.306811 0.0665062
13859 5 0.214449 0.38995 0.0642446
19044 5 0.288309 0.325872 0.0649328
19009 4 0.310072 0.342363 0.0364396
19010 4 0.332277 0.347826 0.0374957
19011 4 0.348452 0.331373 0.0376373
19012 4 0.342825 0.309162 0.0366829
19013 4 0.320518 0.303602 0.0357329
19014 4 0.304287 0.319988 0.0356441
19594 5 0.355732 0.39477 0.0362062
19595 5 0.316125 0.385853 0.0340646
24780 5 0.386024 0.315716 0.0339503
24775 5 0.395019 0.35535 0.0358178
19016 5 0.337411 0.364553 0.0381541
19017 5 0.365098 0.336292 0.038484
19021 4 0.311596 0.344145 0.0517233
19022 4 0.333289 0.344706 0.0539004
19023 4 0.346673 0.325705 0.0536223
19024 4 0.338483 0.306172 0.0511343
19025 4 0.316688 0.305536 0.0490479
19026 4 0.303337 0.324529 0.0493056
19027 5 0.301333 0.358729 0.0518685
19028 5 0.339718 0.359662 0.0557904
19029 5 0.363278 0.326184 0.0553042
19606 5 0.348992 0.389321 0.0505706
19607 5 0.310636 0.388328 0.0467091
24792 5 0.384476 0.324133 0.0472341
24787 5 0.398492 0.35847 0.051807
19037 4 0.317952 0.306845 0.066454
19619 5 0.311977 0.389961 0.0642248
24804 5 0.385783 0.325828 0.0648933
24769 4 0.407703 0.34283 0.0362795
24770 4 0.429567 0.348285 0.0377803
24771 4 0.445967 0.332013 0.0379591
24772 4 0.4409 0.309904 0.0366563
24773 4 0.418877 0.304277 0.0354707
24774 4 0.402409 0.320572 0.0353043
25354 5 0.452601 0.394017 0.0364146
25355 5 0.412717 0.385182 0.0343498
30534 4 0.498634 0.320667 0.0356299
30535 5 0.492585 0.355778 0.0361452
30540 5 0.482141 0.316425 0.0343081
24776 5 0.434208 0.364871 0.0388346
24777 5 0.462254 0.336986 0.0392222
24781 4 0.408812 0.343931 0.0516453
24782 4 0.430407 0.344474 0.053889
24783 4 0.443845 0.325511 0.0536078
24784 4 0.43581 0.306057 0.0510432
24785 4 0.41413 0.305452 0.0488749
24786 4 0.400723 0.324405 0.0491381
24788 5 0.436711 0.359377 0.0558373
24789 5 0.460367 0.325963 0.0553471
25366 5 0.446551 0.389339 0.0507221
25367 5 0.408047 0.388315 0.0469577
30546 4 0.498374 0.324386 0.0492932
30547 5 0.49625 0.358524 0.0519073
30552 5 0.482042 0.324037 0.0474453
24797 4 0.415465 0.306847 0.0663916
25379 5 0.409435 0.389877 0.0642081
30564 5 0.483455 0.325948 0.0648991
2305 4 0.0120384 0.441747 0.0366716
2306 4 0.0346552 0.44651 0.0373538
2307 4 0.0504198 0.429642 0.0373162
2308 4 0.0438108 0.407702 0.0364902
2309 4 0.0211187 0.402803 0.0358845
2310 4 0.00520238 0.419656 0.0360101
2890 5 0.0563727 0.492769 0.0352596
2891 5 0.0159718 0.484441 0.0343123
8076 5 0.091453 0.415023 0.0343668
2312 5 0.0404345 0.463095 0.0378686
2313 5 0.0674328 0.434008 0.0378433
2317 4 0.0178003 0.441734 0.0521218
2318 4 0.0400442 0.44242 0.0538872
2319 4 0.0533827 0.423465 0.0533932
2320 4 0.0446611 0.403921 0.0510388
2321 4 0.022343 0.403168 0.0493515
2322 4 0.00889188 0.422036 0.0499007
2323 5 0.0075792 0.456303 0.052453
2324 5 0.0469069 0.457434 0.0556401
2325 5 0.070328 0.424012 0.0548177
2902 5 0.0553957 0.487252 0.0501494
2903 5 0.0160421 0.48596 0.047064
8088 5 0.0920963 0.421537 0.0471812
2915 5 0.0172946 0.487282 0.0647976
8100 5 0.0935126 0.423483 0.0648604
8065 4 0.114475 0.4412 0.0365609
8066 4 0.136834 0.445885 0.0377419
8067 4 0.152766 0.429129 0.037567
8068 4 0.146654 0.407323 0.0362399
8069 4 0.124235 0.402508 0.0352682
8070 4 0.108226 0.419279 0.0354754
8071 5 0.102099 0.454048 0.0364241
8650 5 0.160188 0.492718 0.0367078
8651 5 0.120926 0.482522 0.0344637
13836 5 0.19067 0.412247 0.0341715
13831 5 0.199892 0.452366 0.035743
8072 5 0.142361 0.462202 0.0388225
8073 5 0.169561 0.433431 0.0385303
8077 4 0.116322 0.441273 0.0516512
8078 4 0.137914 0.441824 0.0538913
8079 4 0.151444 0.422937 0.0535562
8080 4 0.14352 0.403562 0.0509284
8081 4 0.121844 0.402939 0.0487645
8082 4 0.108318 0.421792 0.0491006
8083 5 0.105951 0.455777 0.0518414
8084 5 0.14415 0.456678 0.0558798
8085 5 0.167947 0.4234 0.0553046
8662 5 0.15374 0.48676 0.0508687
8663 5 0.115404 0.48584 0.0469901
13848 5 0.189495 0.421854 0.0473713
8093 4 0.122982 0.40432 0.0664938
8675 5 0.117104 0.487478 0.0642061
13860 5 0.190817 0.423439 0.0649462
8645 4 0.125327 0.498996 0.0357954
13825 4 0.2125 0.439788 0.0363427
13826 4 0.234557 0.445547 0.0374862
13827 4 0.250913 0.429318 0.0377449
13828 4 0.24564 0.407024 0.0368109
13829 4 0.223482 0.401143 0.035792
13830 4 0.207004 0.417307 0.0355531